# vtk DataFile Version 4.2
VTK from Python
ASCII
DATASET UNSTRUCTURED_GRID

POINTS 1089 floats
17.678 6.854 27.898
17.779 6.992 27.908
17.88 7.133 27.886
17.981 7.277 27.832
18.08 7.422 27.748
18.176 7.566 27.633
18.27 7.708 27.49
18.358 7.848 27.318
18.442 7.982 27.121
18.519 8.111 26.899
18.59 8.233 26.656
18.653 8.346 26.393
18.708 8.45 26.112
18.755 8.544 25.817
18.793 8.627 25.511
18.821 8.697 25.196
18.839 8.755 24.875
18.848 8.799 24.552
18.846 8.83 24.229
18.835 8.847 23.91
18.814 8.849 23.598
18.783 8.838 23.296
18.743 8.812 23.006
18.694 8.772 22.732
18.637 8.719 22.476
18.571 8.653 22.24
18.499 8.575 22.028
18.419 8.485 21.84
18.334 8.385 21.679
18.244 8.274 21.546
18.15 8.155 21.443
18.053 8.029 21.37
17.953 7.896 21.329
17.678 6.854 27.898
17.821 6.957 27.904
17.964 7.064 27.878
18.105 7.174 27.821
18.244 7.286 27.733
18.379 7.399 27.615
18.508 7.512 27.469
18.631 7.623 27.294
18.746 7.732 27.094
18.852 7.838 26.87
18.947 7.939 26.624
19.032 8.034 26.359
19.106 8.124 26.077
19.166 8.206 25.781
19.214 8.28 25.474
19.248 8.345 25.158
19.269 8.401 24.837
19.275 8.447 24.514
19.268 8.483 24.192
19.246 8.508 23.874
19.211 8.523 23.563
19.162 8.526 23.262
19.1 8.518 22.974
19.026 8.499 22.703
18.941 8.469 22.449
18.844 8.429 22.216
18.737 8.378 22.007
18.622 8.318 21.822
18.499 8.249 21.664
18.369 8.172 21.535
18.234 8.086 21.435
18.095 7.994 21.366
17.953 7.896 21.329
17.678 6.854 27.898
17.857 6.918 27.899
18.037 6.987 27.869
18.214 7.06 27.808
18.387 7.136 27.716
18.555 7.214 27.593
18.716 7.293 27.443
18.868 7.374 27.265
19.01 7.454 27.061
19.141 7.534 26.834
19.258 7.612 26.585
19.362 7.688 26.318
19.451 7.76 26.034
19.524 7.83 25.736
19.581 7.894 25.428
19.62 7.954 25.111
19.643 8.008 24.79
19.647 8.056 24.468
19.635 8.098 24.146
19.604 8.132 23.829
19.556 8.159 23.52
19.492 8.179 23.221
19.411 8.191 22.936
19.315 8.195 22.666
19.205 8.191 22.416
19.081 8.18 22.187
18.945 8.16 21.981
18.798 8.133 21.8
18.642 8.099 21.646
18.478 8.057 21.521
18.307 8.01 21.426
18.132 7.956 21.362
17.953 7.896 21.329
17.678 6.854 27.898
17.887 6.877 27.894
18.096 6.906 27.859
18.302 6.939 27.792
18.504 6.976 27.695
18.698 7.017 27.568
18.885 7.061 27.413
19.061 7.109 27.231
19.225 7.159 27.023
19.375 7.211 26.792
19.511 7.265 26.541
19.63 7.32 26.271
19.731 7.375 25.984
19.815 7.43 25.685
19.879 7.485 25.375
19.923 7.539 25.058
19.946 7.591 24.737
19.95 7.641 24.414
19.932 7.688 24.094
19.895 7.733 23.778
19.837 7.774 23.47
19.76 7.811 23.174
19.664 7.844 22.891
19.55 7.872 22.625
19.42 7.896 22.378
19.274 7.915 22.153
19.114 7.928 21.951
18.941 7.936 21.775
18.758 7.939 21.626
18.566 7.936 21.506
18.366 7.928 21.416
18.161 7.915 21.357
17.953 7.896 21.329
17.678 6.854 27.898
17.909 6.836 27.888
18.139 6.823 27.847
18.366 6.815 27.775
18.588 6.813 27.673
18.803 6.816 27.541
19.008 6.825 27.381
19.201 6.839 27.194
19.382 6.858 26.982
19.547 6.882 26.747
19.695 6.911 26.492
19.825 6.944 26.219
19.936 6.981 25.931
20.027 7.023 25.629
20.096 7.067 25.318
20.143 7.115 25.0
20.168 7.165 24.679
20.17 7.217 24.356
20.15 7.271 24.037
20.107 7.325 23.722
20.042 7.38 23.417
19.955 7.435 23.123
19.848 7.49 22.843
19.722 7.543 22.58
19.576 7.595 22.337
19.414 7.645 22.116
19.237 7.692 21.918
19.046 7.736 21.747
18.843 7.776 21.604
18.63 7.813 21.489
18.409 7.845 21.404
18.183 7.873 21.351
17.953 7.896 21.329
17.678 6.854 27.898
17.922 6.795 27.882
18.165 6.741 27.836
18.405 6.694 27.758
18.639 6.653 27.65
18.865 6.619 27.512
19.081 6.593 27.347
19.285 6.574 27.155
19.474 6.563 26.939
19.648 6.559 26.7
19.804 6.564 26.442
19.941 6.576 26.166
20.058 6.596 25.874
20.153 6.623 25.571
20.225 6.658 25.259
20.274 6.699 24.94
20.3 6.747 24.618
20.301 6.801 24.296
20.279 6.861 23.977
20.233 6.926 23.664
20.163 6.994 23.361
20.071 7.067 23.069
19.957 7.143 22.792
19.823 7.22 22.533
19.669 7.3 22.294
19.498 7.38 22.077
19.31 7.46 21.885
19.108 7.539 21.719
18.893 7.616 21.58
18.668 7.691 21.471
18.435 7.764 21.393
18.196 7.832 21.345
17.953 7.896 21.329
17.678 6.854 27.898
17.925 6.756 27.876
18.172 6.665 27.824
18.415 6.58 27.74
18.652 6.503 27.626
18.882 6.434 27.483
19.101 6.374 27.313
19.308 6.324 27.116
19.5 6.284 26.896
19.676 6.255 26.653
19.834 6.236 26.391
19.973 6.229 26.112
20.091 6.232 25.818
20.187 6.246 25.513
20.26 6.272 25.199
20.31 6.308 24.879
20.335 6.354 24.557
20.337 6.41 24.235
20.314 6.475 23.917
20.267 6.549 23.606
20.196 6.631 23.304
20.103 6.72 23.015
19.987 6.815 22.742
19.851 6.916 22.486
19.695 7.021 22.251
19.521 7.13 22.038
19.33 7.241 21.851
19.125 7.353 21.69
18.907 7.466 21.557
18.679 7.577 21.454
18.442 7.687 21.381
18.199 7.794 21.339
17.953 7.896 21.329
17.678 6.854 27.898
17.919 6.721 27.871
18.16 6.595 27.812
18.397 6.477 27.723
18.629 6.367 27.604
18.853 6.267 27.456
19.067 6.177 27.28
19.269 6.099 27.079
19.457 6.034 26.854
19.629 5.981 26.608
19.783 5.942 26.342
19.919 5.916 26.06
20.035 5.905 25.764
20.129 5.907 25.457
20.2 5.924 25.141
20.249 5.955 24.821
20.274 5.999 24.498
20.276 6.057 24.177
20.254 6.128 23.86
20.209 6.21 23.55
20.14 6.304 23.25
20.049 6.408 22.963
19.937 6.521 22.693
19.804 6.642 22.441
19.652 6.771 22.209
19.482 6.905 22.001
19.296 7.044 21.818
19.096 7.186 21.662
18.884 7.33 21.535
18.661 7.474 21.437
18.43 7.618 21.369
18.193 7.759 21.333
17.953 7.896 21.329
17.678 6.854 27.898
17.904 6.692 27.865
18.13 6.537 27.802
18.352 6.389 27.707
18.57 6.252 27.583
18.78 6.125 27.43
18.981 6.01 27.25
19.17 5.908 27.045
19.347 5.821 26.816
19.509 5.748 26.566
19.654 5.691 26.297
19.782 5.65 26.012
19.891 5.626 25.714
19.98 5.619 25.404
20.048 5.629 25.088
20.094 5.655 24.766
20.119 5.698 24.444
20.121 5.757 24.123
20.102 5.832 23.806
20.06 5.921 23.498
19.996 6.025 23.2
19.912 6.142 22.915
19.807 6.27 22.647
19.683 6.409 22.398
19.542 6.558 22.171
19.383 6.714 21.967
19.21 6.877 21.788
19.023 7.044 21.637
18.824 7.215 21.514
18.616 7.387 21.421
18.4 7.559 21.359
18.178 7.729 21.328
17.953 7.896 21.329
17.678 6.854 27.898
17.88 6.669 27.861
18.082 6.49 27.792
18.281 6.321 27.693
18.476 6.161 27.565
18.665 6.013 27.408
18.845 5.878 27.223
19.015 5.758 27.014
19.174 5.653 26.782
19.32 5.565 26.529
19.451 5.494 26.257
19.567 5.441 25.97
19.665 5.407 25.669
19.746 5.392 25.359
19.808 5.396 25.041
19.852 5.419 24.719
19.875 5.461 24.396
19.879 5.521 24.075
19.862 5.599 23.759
19.826 5.695 23.452
19.771 5.806 23.155
19.697 5.933 22.873
19.604 6.073 22.608
19.495 6.226 22.362
19.369 6.39 22.137
19.228 6.564 21.936
19.074 6.745 21.761
18.908 6.932 21.614
18.731 7.124 21.495
18.545 7.318 21.407
18.352 7.513 21.349
18.154 7.706 21.323
17.953 7.896 21.329
17.678 6.854 27.898
17.848 6.653 27.857
18.019 6.459 27.785
18.188 6.273 27.682
18.353 6.098 27.549
18.512 5.936 27.389
18.665 5.787 27.202
18.81 5.654 26.989
18.946 5.537 26.754
19.07 5.438 26.498
19.183 5.358 26.224
19.282 5.297 25.935
19.367 5.256 25.633
19.437 5.236 25.321
19.492 5.236 25.002
19.53 5.256 24.68
19.552 5.298 24.356
19.557 5.359 24.036
19.545 5.439 23.721
19.517 5.538 23.414
19.472 5.655 23.119
19.412 5.789 22.838
19.336 5.937 22.575
19.245 6.1 22.331
19.141 6.275 22.109
19.023 6.46 21.911
18.895 6.654 21.74
18.755 6.855 21.595
18.607 7.061 21.48
18.451 7.271 21.396
18.289 7.481 21.342
18.123 7.69 21.319
17.953 7.896 21.329
17.678 6.854 27.898
17.81 6.644 27.854
17.943 6.442 27.779
18.074 6.249 27.673
18.203 6.066 27.538
18.329 5.897 27.375
18.449 5.741 27.185
18.563 5.601 26.971
18.67 5.478 26.733
18.769 5.374 26.476
18.858 5.289 26.2
18.938 5.223 25.909
19.007 5.179 25.606
19.064 5.156 25.293
19.109 5.154 24.973
19.142 5.173 24.65
19.162 5.214 24.327
19.169 5.275 24.006
19.163 5.357 23.691
19.144 5.458 23.386
19.112 5.578 23.092
19.068 5.715 22.812
19.012 5.868 22.55
18.944 6.035 22.308
18.865 6.215 22.088
18.776 6.407 21.892
18.678 6.608 21.723
18.572 6.816 21.581
18.458 7.029 21.469
18.338 7.246 21.387
18.213 7.465 21.336
18.084 7.682 21.316
17.953 7.896 21.329
17.678 6.854 27.898
17.767 6.644 27.852
17.857 6.442 27.775
17.946 6.249 27.668
18.034 6.066 27.531
18.12 5.896 27.366
18.203 5.741 27.175
18.283 5.601 26.959
18.358 5.478 26.72
18.427 5.373 26.461
18.491 5.288 26.184
18.548 5.223 25.893
18.599 5.178 25.588
18.641 5.155 25.275
18.676 5.153 24.955
18.702 5.173 24.632
18.72 5.213 24.308
18.729 5.275 23.988
18.73 5.357 23.673
18.721 5.458 23.368
18.704 5.577 23.074
18.678 5.714 22.796
18.644 5.867 22.535
18.602 6.035 22.294
18.553 6.215 22.075
18.496 6.407 21.881
18.433 6.607 21.713
18.363 6.816 21.573
18.289 7.029 21.462
18.21 7.246 21.382
18.127 7.464 21.332
18.041 7.682 21.315
17.953 7.896 21.329
17.678 6.854 27.898
17.72 6.653 27.851
17.764 6.458 27.774
17.808 6.273 27.666
17.852 6.098 27.528
17.896 5.935 27.363
17.939 5.787 27.171
17.981 5.653 26.954
18.021 5.536 26.715
18.059 5.437 26.456
18.095 5.357 26.179
18.128 5.296 25.886
18.158 5.255 25.582
18.185 5.234 25.268
18.209 5.234 24.948
18.228 5.255 24.625
18.244 5.296 24.301
18.255 5.357 23.981
18.262 5.437 23.666
18.265 5.537 23.361
18.264 5.654 23.068
18.258 5.787 22.79
18.248 5.936 22.529
18.234 6.098 22.288
18.216 6.273 22.07
18.194 6.459 21.876
18.168 6.653 21.709
18.139 6.855 21.569
18.107 7.061 21.459
18.072 7.27 21.38
18.034 7.481 21.331
17.994 7.69 21.314
17.953 7.896 21.329
17.678 6.854 27.898
17.672 6.668 27.852
17.668 6.49 27.775
17.665 6.32 27.667
17.663 6.16 27.53
17.663 6.012 27.365
17.665 5.877 27.174
17.668 5.756 26.958
17.672 5.651 26.719
17.678 5.563 26.46
17.685 5.492 26.183
17.694 5.439 25.891
17.703 5.405 25.587
17.714 5.39 25.273
17.725 5.393 24.953
17.738 5.416 24.63
17.751 5.458 24.306
17.765 5.519 23.986
17.779 5.597 23.671
17.794 5.692 23.366
17.809 5.804 23.073
17.824 5.93 22.794
17.838 6.071 22.533
17.853 6.224 22.292
17.867 6.388 22.074
17.881 6.562 21.88
17.894 6.743 21.712
17.907 6.931 21.572
17.918 7.123 21.461
17.928 7.317 21.381
17.938 7.512 21.332
17.946 7.706 21.314
17.953 7.896 21.329
17.678 6.854 27.898
17.624 6.692 27.854
17.572 6.536 27.778
17.522 6.388 27.672
17.476 6.25 27.537
17.432 6.123 27.373
17.393 6.008 27.183
[...]
POINT_DATA 1089
SCALARS MIL float
LOOKUP_TABLE default
1.261 1.256 1.243 1.221 1.192 1.154 1.11 1.06 1.006 0.948 0.889 0.831 0.776 0.729 0.691 0.667 0.658 0.667 0.691 0.729 0.776 0.831 0.889 0.948 1.006 1.06 1.11 1.154 1.192 1.221 1.243 1.256 1.261 
1.261 1.256 1.243 1.222 1.193 1.157 1.114 1.065 1.013 0.957 0.9 0.844 0.792 0.746 0.71 0.687 0.679 0.687 0.71 0.746 0.792 0.844 0.9 0.957 1.013 1.065 1.114 1.157 1.193 1.222 1.243 1.256 1.261 
1.261 1.257 1.245 1.225 1.198 1.165 1.125 1.08 1.032 0.981 0.93 0.88 0.833 0.793 0.762 0.742 0.736 0.742 0.762 0.793 0.833 0.88 0.93 0.981 1.032 1.08 1.125 1.165 1.198 1.225 1.245 1.257 1.261 
1.261 1.257 1.247 1.229 1.205 1.176 1.141 1.102 1.061 1.017 0.973 0.931 0.892 0.859 0.834 0.818 0.813 0.818 0.834 0.859 0.892 0.931 0.973 1.017 1.061 1.102 1.141 1.176 1.205 1.229 1.247 1.257 1.261 
1.261 1.258 1.249 1.234 1.214 1.189 1.16 1.128 1.093 1.057 1.022 0.988 0.957 0.931 0.912 0.899 0.895 0.899 0.912 0.931 0.957 0.988 1.022 1.057 1.093 1.128 1.16 1.189 1.214 1.234 1.249 1.258 1.261 
1.261 1.258 1.251 1.239 1.222 1.202 1.179 1.153 1.125 1.096 1.068 1.042 1.018 0.998 0.983 0.974 0.97 0.974 0.983 0.998 1.018 1.042 1.068 1.096 1.125 1.153 1.179 1.202 1.222 1.239 1.251 1.258 1.261 
1.261 1.259 1.253 1.243 1.23 1.213 1.194 1.173 1.151 1.129 1.106 1.086 1.067 1.051 1.04 1.033 1.03 1.033 1.04 1.051 1.067 1.086 1.106 1.129 1.151 1.173 1.194 1.213 1.23 1.243 1.253 1.259 1.261 
1.261 1.259 1.254 1.246 1.234 1.22 1.204 1.187 1.168 1.149 1.131 1.114 1.098 1.086 1.076 1.07 1.068 1.07 1.076 1.086 1.098 1.114 1.131 1.149 1.168 1.187 1.204 1.22 1.234 1.246 1.254 1.259 1.261 
1.261 1.259 1.254 1.246 1.236 1.223 1.208 1.192 1.174 1.157 1.14 1.123 1.109 1.097 1.088 1.083 1.081 1.083 1.088 1.097 1.109 1.123 1.14 1.157 1.174 1.192 1.208 1.223 1.236 1.246 1.254 1.259 1.261 
1.261 1.259 1.254 1.246 1.234 1.22 1.204 1.187 1.168 1.149 1.131 1.114 1.098 1.086 1.076 1.07 1.068 1.07 1.076 1.086 1.098 1.114 1.131 1.149 1.168 1.187 1.204 1.22 1.234 1.246 1.254 1.259 1.261 
1.261 1.259 1.253 1.243 1.23 1.213 1.194 1.173 1.151 1.129 1.106 1.086 1.067 1.051 1.04 1.033 1.03 1.033 1.04 1.051 1.067 1.086 1.106 1.129 1.151 1.173 1.194 1.213 1.23 1.243 1.253 1.259 1.261 
1.261 1.258 1.251 1.239 1.222 1.202 1.179 1.153 1.125 1.096 1.068 1.042 1.018 0.998 0.983 0.974 0.97 0.974 0.983 0.998 1.018 1.042 1.068 1.096 1.125 1.153 1.179 1.202 1.222 1.239 1.251 1.258 1.261 
1.261 1.258 1.249 1.234 1.214 1.189 1.16 1.128 1.093 1.057 1.022 0.988 0.957 0.931 0.912 0.899 0.895 0.899 0.912 0.931 0.957 0.988 1.022 1.057 1.093 1.128 1.16 1.189 1.214 1.234 1.249 1.258 1.261 
1.261 1.257 1.247 1.229 1.205 1.176 1.141 1.102 1.061 1.017 0.973 0.931 0.892 0.859 0.834 0.818 0.813 0.818 0.834 0.859 0.892 0.931 0.973 1.017 1.061 1.102 1.141 1.176 1.205 1.229 1.247 1.257 1.261 
1.261 1.257 1.245 1.225 1.198 1.165 1.125 1.08 1.032 0.981 0.93 0.88 0.833 0.793 0.762 0.742 0.736 0.742 0.762 0.793 0.833 0.88 0.93 0.981 1.032 1.08 1.125 1.165 1.198 1.225 1.245 1.257 1.261 
1.261 1.256 1.243 1.222 1.193 1.157 1.114 1.065 1.013 0.957 0.9 0.844 0.792 0.746 0.71 0.687 0.679 0.687 0.71 0.746 0.792 0.844 0.9 0.957 1.013 1.065 1.114 1.157 1.193 1.222 1.243 1.256 1.261 
1.261 1.256 1.243 1.221 1.192 1.154 1.11 1.06 1.006 0.948 0.889 0.831 0.776 0.729 0.691 0.667 0.658 0.667 0.691 0.729 0.776 0.831 0.889 0.948 1.006 1.06 1.11 1.154 1.192 1.221 1.243 1.256 1.261 
1.261 1.256 1.243 1.222 1.193 1.157 1.114 1.065 1.013 0.957 0.9 0.844 0.792 0.746 0.71 0.687 0.679 0.687 0.71 0.746 0.792 0.844 0.9 0.957 1.013 1.065 1.114 1.157 1.193 1.222 1.243 1.256 1.261 
1.261 1.257 1.245 1.225 1.198 1.165 1.125 1.08 1.032 0.981 0.93 0.88 0.833 0.793 0.762 0.742 0.736 0.742 0.762 0.793 0.833 0.88 0.93 0.981 1.032 1.08 1.125 1.165 1.198 1.225 1.245 1.257 1.261 
1.261 1.257 1.247 1.229 1.205 1.176 1.141 1.102 1.061 1.017 0.973 0.931 0.892 0.859 0.834 0.818 0.813 0.818 0.834 0.859 0.892 0.931 0.973 1.017 1.061 1.102 1.141 1.176 1.205 1.229 1.247 1.257 1.261 
1.261 1.258 1.249 1.234 1.214 1.189 1.16 1.128 1.093 1.057 1.022 0.988 0.957 0.931 0.912 0.899 0.895 0.899 0.912 0.931 0.957 0.988 1.022 1.057 1.093 1.128 1.16 1.189 1.214 1.234 1.249 1.258 1.261 
1.261 1.258 1.251 1.239 1.222 1.202 1.179 1.153 1.125 1.096 1.068 1.042 1.018 0.998 0.983 0.974 0.97 0.974 0.983 0.998 1.018 1.042 1.068 1.096 1.125 1.153 1.179 1.202 1.222 1.239 1.251 1.258 1.261 
1.261 1.259 1.253 1.243 1.23 1.213 1.194 1.173 1.151 1.129 1.106 1.086 1.067 1.051 1.04 1.033 1.03 1.033 1.04 1.051 1.067 1.086 1.106 1.129 1.151 1.173 1.194 1.213 1.23 1.243 1.253 1.259 1.261 
1.261 1.259 1.254 1.246 1.234 1.22 1.204 1.187 1.168 1.149 1.131 1.114 1.098 1.086 1.076 1.07 1.068 1.07 1.076 1.086 1.098 1.114 1.131 1.149 1.168 1.187 1.204 1.22 1.234 1.246 1.254 1.259 1.261 
1.261 1.259 1.254 1.246 1.236 1.223 1.208 1.192 1.174 1.157 1.14 1.123 1.109 1.097 1.088 1.083 1.081 1.083 1.088 1.097 1.109 1.123 1.14 1.157 1.174 1.192 1.208 1.223 1.236 1.246 1.254 1.259 1.261 
1.261 1.259 1.254 1.246 1.234 1.22 1.204 1.187 1.168 1.149 1.131 1.114 1.098 1.086 1.076 1.07 1.068 1.07 1.076 1.086 1.098 1.114 1.131 1.149 1.168 1.187 1.204 1.22 1.234 1.246 1.254 1.259 1.261 
1.261 1.259 1.253 1.243 1.23 1.213 1.194 1.173 1.151 1.129 1.106 1.086 1.067 1.051 1.04 1.033 1.03 1.033 1.04 1.051 1.067 1.086 1.106 1.129 1.151 1.173 1.194 1.213 1.23 1.243 1.253 1.259 1.261 
1.261 1.258 1.251 1.239 1.222 1.202 1.179 1.153 1.125 1.096 1.068 1.042 1.018 0.998 0.983 0.974 0.97 0.974 0.983 0.998 1.018 1.042 1.068 1.096 1.125 1.153 1.179 1.202 1.222 1.239 1.251 1.258 1.261 
1.261 1.258 1.249 1.234 1.214 1.189 1.16 1.128 1.093 1.057 1.022 0.988 0.957 0.931 0.912 0.899 0.895 0.899 0.912 0.931 0.957 0.988 1.022 1.057 1.093 1.128 1.16 1.189 1.214 1.234 1.249 1.258 1.261 
1.261 1.257 1.247 1.229 1.205 1.176 1.141 1.102 1.061 1.017 0.973 0.931 0.892 0.859 0.834 0.818 0.813 0.818 0.834 0.859 0.892 0.931 0.973 1.017 1.061 1.102 1.141 1.176 1.205 1.229 1.247 1.257 1.261 
1.261 1.257 1.245 1.225 1.198 1.165 1.125 1.08 1.032 0.981 0.93 0.88 0.833 0.793 0.762 0.742 0.736 0.742 0.762 0.793 0.833 0.88 0.93 0.981 1.032 1.08 1.125 1.165 1.198 1.225 1.245 1.257 1.261 
1.261 1.256 1.243 1.222 1.193 1.157 1.114 1.065 1.013 0.957 0.9 0.844 0.792 0.746 0.71 0.687 0.679 0.687 0.71 0.746 0.792 0.844 0.9 0.957 1.013 1.065 1.114 1.157 1.193 1.222 1.243 1.256 1.261 
1.261 1.256 1.243 1.221 1.192 1.154 1.11 1.06 1.006 0.948 0.889 0.831 0.776 0.729 0.691 0.667 0.658 0.667 0.691 0.729 0.776 0.831 0.889 0.948 1.006 1.06 1.11 1.154 1.192 1.221 1.243 1.256 1.261 
