# vtk DataFile Version 4.2
VTK from Python
ASCII
DATASET UNSTRUCTURED_GRID

POINTS 1089 floats
0.0 0.0 969.2
93.8 0.0 952.367
179.885 0.0 904.342
251.737 0.0 829.866
304.877 0.0 736.039
337.406 0.0 631.241
350.077 0.0 523.928
345.921 0.0 421.506
329.501 0.0 329.501
305.996 0.0 251.124
280.292 0.0 187.285
256.281 0.0 136.985
236.467 0.0 97.948
221.955 0.0 67.329
212.744 0.0 42.317
208.219 0.0 20.508
207.684 0.0 0.0
210.762 0.0 -20.758
217.563 0.0 -43.276
228.56 0.0 -69.333
244.215 0.0 -101.157
264.476 0.0 -141.365
288.277 0.0 -192.621
313.234 0.0 -257.064
335.628 0.0 -335.628
350.764 0.0 -427.407
353.637 0.0 -529.255
339.817 0.0 -635.754
306.357 0.0 -739.612
252.528 0.0 -832.475
180.22 0.0 -906.027
93.881 0.0 -953.189
0.0 0.0 -969.2
0.0 0.0 969.2
91.81 18.262 950.425
175.882 34.985 901.541
246.14 48.96 827.313
298.459 59.367 734.659
331.124 65.865 631.626
344.875 68.6 526.254
342.525 68.133 425.545
328.281 65.299 334.712
306.901 61.046 256.802
282.891 56.27 192.725
259.878 51.693 141.629
240.285 47.796 101.479
225.32 44.819 69.689
215.245 42.815 43.654
209.792 41.73 21.067
208.608 41.495 0.0
211.572 42.084 -21.246
218.893 43.541 -44.394
230.962 45.941 -71.434
248.001 49.33 -104.738
269.611 53.629 -146.934
294.369 58.554 -200.544
319.601 63.573 -267.429
341.457 67.92 -348.146
355.29 70.672 -441.404
356.334 70.879 -543.739
340.528 67.735 -649.565
305.347 60.737 -751.615
250.439 49.815 -841.762
177.939 35.394 -912.083
92.347 18.369 -955.987
0.0 0.0 -969.2
0.0 0.0 969.2
86.364 35.773 949.117
165.57 68.581 900.96
232.404 96.265 829.255
283.331 117.36 740.381
316.861 131.248 641.647
333.545 138.159 540.314
335.663 139.036 442.706
326.664 135.309 353.579
310.49 128.609 275.807
290.939 120.511 210.416
271.174 112.324 156.888
253.468 104.99 113.64
239.181 99.072 78.533
228.953 94.835 49.294
222.993 92.367 23.772
221.377 91.697 0.0
224.246 92.886 -23.906
231.829 96.027 -49.913
244.296 101.191 -80.212
261.475 108.306 -117.23
282.516 117.022 -163.45
305.634 126.598 -221.044
328.007 135.865 -291.368
345.925 143.287 -374.426
355.183 147.122 -468.451
351.687 145.674 -569.704
332.151 137.581 -672.61
294.756 122.092 -770.235
239.638 99.261 -855.068
169.065 70.029 -919.978
87.282 36.154 -959.208
0.0 0.0 -969.2
0.0 0.0 969.2
77.665 51.894 948.379
149.209 99.698 902.166
210.518 140.664 834.65
258.792 172.919 751.415
292.784 195.632 658.786
312.797 209.005 563.02
320.446 214.115 469.608
318.254 212.651 382.761
309.178 206.586 305.166
296.158 197.887 237.996
281.77 188.272 181.136
268.03 179.092 133.525
256.364 171.297 93.53
247.697 165.506 59.257
242.61 162.107 28.738
241.488 161.357 0.0
244.609 163.442 -28.975
252.114 168.457 -60.313
263.891 176.326 -96.276
279.38 186.675 -139.179
297.383 198.705 -191.173
315.948 211.11 -253.9
332.388 222.095 -328.074
343.468 229.498 -413.086
345.772 231.037 -506.722
336.179 224.628 -605.106
312.391 208.733 -702.902
273.388 182.672 -793.797
219.736 146.823 -871.197
153.655 102.669 -929.046
78.832 52.674 -962.627
0.0 0.0 -969.2
0.0 0.0 969.2
66.028 66.028 948.084
127.222 127.222 904.512
180.611 180.611 842.016
224.149 224.149 765.292
256.858 256.858 679.598
278.828 278.828 590.144
291.057 291.057 501.556
295.205 295.205 417.483
293.293 293.293 340.401
287.417 287.417 271.594
279.522 279.522 211.294
271.262 271.262 158.902
263.947 263.947 113.232
258.555 258.555 72.733
255.787 255.787 35.628
256.106 256.106 0.0
259.754 259.754 -36.181
266.712 266.712 -75.027
276.62 276.62 -118.669
288.686 288.686 -169.108
301.611 301.611 -227.991
313.581 313.581 -296.318
322.356 322.356 -374.131
325.453 325.453 -460.26
320.438 320.438 -552.186
305.258 305.258 -646.086
278.585 278.585 -737.082
240.082 240.082 -819.693
190.564 190.564 -888.418
131.986 131.986 -938.388
67.273 67.273 -965.963
0.0 0.0 -969.2
0.0 0.0 969.2
51.877 77.64 948.071
100.259 150.049 907.243
143.198 214.31 849.684
179.323 268.376 779.243
207.934 311.195 700.211
228.991 342.71 616.861
243.042 363.739 533.052
251.078 375.765 451.928
254.366 380.686 375.746
254.288 380.569 305.83
252.195 377.437 242.635
249.307 373.115 185.875
246.654 369.143 134.675
245.041 366.73 87.733
245.049 366.742 43.442
247.018 369.689 0.0
251.043 375.713 -44.505
256.943 384.543 -91.994
264.233 395.453 -144.274
272.101 407.227 -202.869
279.41 418.166 -268.818
284.745 426.152 -342.46
286.512 428.796 -423.231
283.083 423.663 -509.536
272.985 408.551 -598.724
255.104 381.791 -687.205
228.868 342.525 -770.707
194.377 290.906 -844.661
152.464 228.178 -904.668
104.65 156.62 -946.976
53.018 79.347 -968.915
0.0 0.0 -969.2
0.0 0.0 969.2
35.738 86.278 948.176
69.242 167.165 909.637
99.377 239.917 856.065
125.327 302.566 790.643
146.645 354.032 716.92
163.259 394.141 638.475
175.435 423.537 558.603
183.715 443.526 480.069
188.827 455.868 404.945
191.599 462.56 334.538
192.871 465.633 269.392
193.429 466.978 209.366
193.941 468.215 153.734
194.928 470.598 101.32
196.735 474.961 50.634
199.514 481.67 0.0
203.217 490.61 -52.302
207.59 501.167 -107.902
212.177 512.24 -168.189
216.333 522.275 -234.157
219.26 529.342 -306.251
220.055 531.259 -384.223
217.781 525.77 -467.039
211.563 510.757 -552.84
200.681 484.487 -638.99
184.674 445.842 -722.226
163.412 394.512 -798.892
137.154 331.118 -865.253
106.548 257.23 -917.84
72.604 175.281 -953.802
36.605 88.373 -971.198
0.0 0.0 -969.2
0.0 0.0 969.2
18.221 91.601 948.265
35.357 177.75 911.114
50.889 255.838 859.909
64.439 323.958 797.427
75.789 381.018 726.8
84.892 426.778 651.232
91.857 461.797 573.725
96.931 487.303 496.85
100.453 505.012 422.572
102.821 516.917 352.16
104.443 525.071 286.155
105.7 531.388 224.42
106.911 537.477 166.236
108.311 544.518 110.433
110.035 553.182 55.551
112.104 563.586 0.0
114.435 575.301 -57.772
116.837 587.377 -119.126
119.031 598.409 -185.082
120.666 606.629 -256.197
121.343 610.032 -332.457
120.645 606.523 -413.205
118.173 594.095 -497.113
113.582 571.014 -582.2
106.619 536.008 -665.923
97.156 488.435 -745.315
85.216 428.408 -817.198
70.984 356.862 -878.419
54.808 275.54 -926.127
37.177 186.901 -958.023
18.688 93.95 -972.581
0.0 0.0 -969.2
0.0 0.0 969.2
0.0 93.395 948.257
0.0 181.276 911.335
0.0 261.029 860.496
0.0 330.721 798.43
0.0 389.239 728.215
0.0 436.342 653.032
0.0 472.618 575.886
0.0 499.359 499.359
0.0 518.373 425.418
0.0 531.753 355.306
0.0 541.634 289.509
0.0 549.967 227.804
0.0 558.336 169.369
0.0 567.822 112.947
0.0 578.925 57.019
0.0 591.55 0.0
0.0 605.034 -59.591
0.0 618.213 -122.97
0.0 629.529 -190.965
0.0 637.139 -263.912
0.0 639.061 -341.585
0.0 633.312 -423.166
0.0 618.068 -507.235
0.0 591.817 -591.817
0.0 553.514 -674.459
0.0 502.712 -752.362
0.0 439.664 -822.553
0.0 365.378 -882.099
0.0 281.608 -928.336
0.0 190.776 -959.098
0.0 95.824 -972.922
0.0 0.0 -969.2
-0.0 0.0 969.2
-18.218 91.589 948.138
-35.323 177.581 910.252
-50.761 255.195 857.746
-64.127 322.387 793.56
-75.193 378.019 721.08
-83.924 421.913 643.807
-90.465 454.797 565.028
-95.111 478.156 487.524
-98.263 494.001 413.359
-100.371 504.6 343.769
-101.884 512.207 279.144
-103.2 518.82 219.112
-104.627 525.997 162.685
-106.367 534.742 108.451
-108.498 545.455 54.775
-110.983 557.949 0.0
-113.68 571.506 -57.391
-116.357 584.966 -118.637
-118.715 596.82 -184.59
-120.405 605.319 -255.644
-121.054 608.58 -331.666
-120.282 604.697 -411.962
-117.73 591.87 -495.252
-113.09 568.541 -579.679
-106.128 533.542 -662.859
-96.721 486.248 -741.979
-84.877 426.708 -813.954
-70.76 355.735 -875.647
-54.689 274.94 -924.112
-37.132 186.677 -956.875
-18.68 93.912 -972.182
-0.0 0.0 -969.2
-0.0 0.0 969.2
-35.73 86.259 947.962
-69.125 166.884 908.106
-98.93 238.837 852.211
-124.238 299.937 783.773
-144.578 349.042 706.814
-159.929 386.103 625.454
-170.687 412.074 543.484
-177.574 428.702 464.024
-181.525 438.24 389.287
-183.55 443.129 320.485
-184.616 445.702 257.861
-185.544 447.944 200.832
-186.95 451.338 148.192
-189.21 456.794 98.348
-192.469 464.661 49.536
-196.659 474.777 0.0
-201.537 486.554 -51.87
-206.715 499.055 -107.447
-211.686 511.054 -167.8
-215.839 521.083 -233.623
-218.485 527.469 -305.168
-218.868 528.394 -382.151
-216.208 521.972 -463.666
-209.753 506.388 -548.11
-198.853 480.073 -633.168
-183.046 441.913 -715.862
-162.148 391.459 -792.71
-136.318 329.1 -859.979
-106.104 256.159 -914.017
-72.438 174.882 -951.628
-36.577 88.304 -970.44
-0.0 0.0 -969.2
-0.0 0.0 969.2
-51.865 77.621 947.843
-100.054 149.742 905.387
-142.403 213.121 844.968
-177.396 265.493 770.871
-204.31 305.772 688.009
-223.228 334.084 601.336
-234.95 351.627 515.303
-240.808 360.395 433.443
-242.432 362.825 358.116
-241.505 361.437 290.455
-239.557 358.522 230.476
-237.818 355.92 177.309
-237.151 354.922 129.487
-238.052 356.271 85.231
-240.701 360.234 42.671
-245.034 366.72 0.0
-250.812 375.367 -44.464
-257.657 385.61 -92.25
-265.052 396.678 -144.721
-272.318 407.553 -203.031
-278.579 416.923 -268.02
-282.739 423.148 -340.047
-283.508 424.299 -418.793
-279.486 418.281 -503.062
-269.308 403.048 -590.66
-251.829 376.889 -678.381
-226.331 338.729 -762.165
-192.709 288.41 -837.412
-151.583 226.859 -899.437
-104.322 156.129 -944.008
-52.961 79.262 -967.874
-0.0 0.0 -969.2
-0.0 0.0 969.2
-66.018 66.018 947.933
-126.974 126.974 902.754
-179.628 179.628 837.434
-221.772 221.772 757.176
-252.442 252.442 667.913
-271.932 271.932 575.55
-281.606 281.606 485.271
-283.578 283.578 401.04
-280.313 280.313 325.335
-274.238 274.238 259.14
-267.437 267.437 202.159
-261.466 261.466 153.163
-257.309 257.309 110.385
-255.448 255.448 71.859
-256.017 256.017 35.66
-258.949 258.949 0.0
-264.104 264.104 -36.786
-271.295 271.295 -76.317
-280.245 280.245 -120.224
-290.461 290.461 -170.148
-301.091 301.091 -227.599
-310.818 310.818 -293.706
-317.834 317.834 -368.883
-319.949 319.949 -452.476
-314.821 314.821 -542.507
-300.292 300.292 -635.575
-274.775 274.775 -727.001
-237.599 237.599 -811.212
-189.261 189.261 -882.342
-131.502 131.502 -934.947
-67.188 67.188 -964.742
-0.0 0.0 -969.2
-0.0 0.0 969.2
-77.667 51.895 948.395
-149.003 99.561 900.922
-209.635 140.074 831.148
-256.638 171.48 745.162
[...]
POINT_DATA 1089
SCALARS Bulk_modulus float
LOOKUP_TABLE default
1257.478 1249.415 1225.155 1185.63 1132.359 1067.389 993.217 912.693 828.913 745.094 664.459 590.106 524.893 471.326 431.463 406.836 398.392 406.454 430.714 470.239 523.51 588.48 662.652 743.176 826.957 910.775 991.41 1065.763 1130.976 1184.544 1224.407 1249.034 1257.478 
1257.478 1247.295 1221.387 1180.749 1126.943 1062.036 988.523 909.229 827.201 745.591 667.536 596.036 533.837 483.33 446.457 424.634 418.699 428.882 454.79 495.428 549.234 614.141 687.654 766.948 848.976 930.586 1008.641 1080.142 1142.34 1192.847 1229.72 1251.544 1257.478 
1257.478 1245.578 1219.049 1178.911 1126.706 1064.442 994.509 919.596 842.582 766.427 694.056 628.251 571.541 526.106 493.691 475.542 472.356 484.256 510.785 550.923 603.127 665.392 735.325 810.237 887.251 963.407 1035.778 1101.583 1158.292 1203.728 1236.143 1254.292 1257.478 
1257.478 1244.269 1217.997 1179.671 1130.764 1073.156 1009.06 940.939 871.412 803.15 738.776 680.765 631.345 592.416 565.474 551.555 551.192 564.401 590.673 628.999 677.906 735.514 799.61 867.731 937.258 1005.521 1069.894 1127.905 1177.325 1216.254 1243.196 1257.115 1257.478 
1257.478 1243.334 1217.931 1182.245 1137.647 1085.851 1028.847 968.826 908.095 848.988 793.775 744.58 703.291 671.497 650.419 640.866 643.206 657.35 682.753 718.439 763.037 814.834 871.837 931.858 992.589 1051.696 1106.909 1156.105 1197.393 1229.187 1250.266 1259.818 1257.478 
1257.478 1242.708 1218.455 1185.651 1145.556 1099.711 1049.878 997.972 945.987 895.922 849.701 809.099 775.677 750.719 735.185 729.671 734.39 749.16 773.413 806.217 846.312 892.157 941.99 993.896 1045.881 1095.946 1142.167 1182.769 1216.191 1241.149 1256.683 1262.197 1257.478 
1257.478 1242.315 1219.154 1188.883 1152.667 1111.897 1068.141 1023.078 978.442 935.948 897.228 863.771 836.862 817.535 806.534 804.28 810.861 826.024 849.186 879.456 915.672 956.442 1000.198 1045.261 1089.897 1132.391 1171.111 1204.569 1231.478 1250.804 1261.805 1264.059 1257.478 
1257.478 1242.087 1219.669 1191.085 1157.434 1120.008 1080.248 1039.679 999.862 962.326 928.514 899.725 877.066 861.407 853.35 853.206 860.978 876.369 898.787 927.371 961.022 998.447 1038.208 1078.777 1118.594 1156.13 1189.942 1218.731 1241.39 1257.049 1265.105 1265.25 1257.478 
1257.478 1241.977 1219.763 1191.69 1158.836 1122.465 1083.973 1044.84 1006.57 970.634 938.413 911.144 889.876 875.426 868.349 868.918 877.11 892.611 914.825 942.899 975.752 1012.124 1050.615 1089.748 1128.018 1163.954 1196.176 1223.445 1244.713 1259.162 1266.239 1265.67 1257.478 
1257.478 1241.972 1219.364 1190.521 1156.552 1118.763 1078.606 1037.624 997.392 959.457 925.275 896.16 873.232 857.371 849.188 848.996 856.803 872.308 894.917 923.76 957.728 995.517 1035.674 1076.656 1116.888 1154.824 1189.006 1218.12 1241.048 1256.909 1265.093 1265.285 1257.478 
1257.478 1242.095 1218.574 1187.817 1151.008 1109.561 1065.068 1019.239 973.836 930.604 891.203 857.148 829.747 810.054 798.826 796.493 803.146 818.529 842.05 872.807 909.616 951.063 995.556 1041.385 1086.788 1130.02 1169.421 1203.476 1230.877 1250.57 1261.798 1264.131 1257.478 
1257.478 1242.399 1217.656 1184.198 1143.311 1096.567 1045.763 992.849 939.861 888.833 841.728 800.355 766.304 740.885 725.073 719.476 724.31 739.388 764.132 797.59 838.476 885.22 936.025 988.938 1041.927 1092.954 1140.06 1181.433 1215.483 1240.903 1256.715 1262.312 1257.478 
1257.478 1242.96 1216.987 1180.557 1135.071 1082.276 1024.202 963.079 901.257 841.112 784.955 734.944 693.001 660.737 639.394 629.79 632.296 646.814 672.786 709.216 754.702 807.497 865.572 926.694 988.516 1048.662 1104.819 1154.83 1196.773 1229.036 1250.38 1259.983 1257.478 
1257.478 1243.855 1216.991 1177.919 1128.138 1069.564 1004.446 935.287 864.746 795.531 730.305 671.572 621.591 582.282 555.155 541.254 541.112 554.735 581.598 620.671 670.451 729.026 794.144 863.302 933.844 1003.058 1068.285 1127.017 1176.999 1216.308 1243.434 1257.336 1257.478 
1257.478 1245.151 1218.064 1177.257 1124.299 1061.225 990.458 914.719 836.918 760.044 687.053 620.748 563.678 518.037 485.578 467.548 464.641 476.967 504.055 544.861 597.82 660.894 731.66 807.399 885.201 962.074 1035.066 1101.37 1158.44 1204.082 1236.541 1254.571 1257.478 
1257.478 1246.881 1220.494 1179.332 1124.975 1059.513 985.462 905.667 823.195 741.215 662.878 591.193 528.917 478.441 441.706 420.124 414.524 425.121 451.507 492.67 547.027 612.488 686.54 766.334 848.807 930.787 1009.124 1080.808 1143.085 1193.561 1230.295 1251.878 1257.478 
1257.478 1249.034 1224.407 1184.544 1130.976 1065.763 991.41 910.775 826.957 743.176 662.652 588.48 523.51 470.239 430.714 406.454 398.392 406.836 431.463 471.326 524.893 590.106 664.459 745.094 828.913 912.693 993.217 1067.389 1132.359 1185.63 1225.155 1249.415 1257.478 
1257.478 1251.544 1229.72 1192.847 1142.34 1080.142 1008.641 930.586 848.976 766.948 687.654 614.141 549.234 495.428 454.79 428.882 418.699 424.634 446.457 483.33 533.837 596.036 667.536 745.591 827.201 909.229 988.523 1062.036 1126.943 1180.749 1221.387 1247.295 1257.478 
1257.478 1254.292 1236.143 1203.728 1158.292 1101.583 1035.778 963.407 887.251 810.237 735.325 665.392 603.127 550.923 510.785 484.256 472.356 475.542 493.691 526.106 571.541 628.251 694.056 766.427 842.582 919.596 994.509 1064.442 1126.706 1178.911 1219.049 1245.578 1257.478 
1257.478 1257.115 1243.196 1216.254 1177.325 1127.905 1069.894 1005.521 937.258 867.731 799.61 735.514 677.906 628.999 590.673 564.401 551.192 551.555 565.474 592.416 631.345 680.765 738.776 803.15 871.412 940.939 1009.06 1073.156 1130.764 1179.671 1217.997 1244.269 1257.478 
1257.478 1259.818 1250.266 1229.187 1197.393 1156.105 1106.909 1051.696 992.589 931.858 871.837 814.834 763.037 718.439 682.753 657.35 643.206 640.866 650.419 671.497 703.291 744.58 793.775 848.988 908.095 968.826 1028.847 1085.851 1137.647 1182.245 1217.931 1243.334 1257.478 
1257.478 1262.197 1256.683 1241.149 1216.191 1182.769 1142.167 1095.946 1045.881 993.896 941.99 892.157 846.312 806.217 773.413 749.16 734.39 729.671 735.185 750.719 775.677 809.099 849.701 895.922 945.987 997.972 1049.878 1099.711 1145.556 1185.651 1218.455 1242.708 1257.478 
1257.478 1264.059 1261.805 1250.804 1231.478 1204.569 1171.111 1132.391 1089.897 1045.261 1000.198 956.442 915.672 879.456 849.186 826.024 810.861 804.28 806.534 817.535 836.862 863.771 897.228 935.948 978.442 1023.078 1068.141 1111.897 1152.667 1188.883 1219.154 1242.315 1257.478 
1257.478 1265.25 1265.105 1257.049 1241.39 1218.731 1189.942 1156.13 1118.594 1078.777 1038.208 998.447 961.022 927.371 898.787 876.369 860.978 853.206 853.35 861.407 877.066 899.725 928.514 962.326 999.862 1039.679 1080.248 1120.008 1157.434 1191.085 1219.669 1242.087 1257.478 
1257.478 1265.67 1266.239 1259.162 1244.713 1223.445 1196.176 1163.954 1128.018 1089.748 1050.615 1012.124 975.752 942.899 914.825 892.611 877.11 868.918 868.349 875.426 889.876 911.144 938.413 970.634 1006.57 1044.84 1083.973 1122.465 1158.836 1191.69 1219.763 1241.977 1257.478 
1257.478 1265.285 1265.093 1256.909 1241.048 1218.12 1189.006 1154.824 1116.888 1076.656 1035.674 995.517 957.728 923.76 894.917 872.308 856.803 848.996 849.188 857.371 873.232 896.16 925.275 959.457 997.392 1037.624 1078.606 1118.763 1156.552 1190.521 1219.364 1241.972 1257.478 
1257.478 1264.131 1261.798 1250.57 1230.877 1203.476 1169.421 1130.02 1086.788 1041.385 995.556 951.063 909.616 872.807 842.05 818.529 803.146 796.493 798.826 810.054 829.747 857.148 891.203 930.604 973.836 1019.239 1065.068 1109.561 1151.008 1187.817 1218.574 1242.095 1257.478 
1257.478 1262.312 1256.715 1240.903 1215.483 1181.433 1140.06 1092.954 1041.927 988.938 936.025 885.22 838.476 797.59 764.132 739.388 724.31 719.476 725.073 740.885 766.304 800.355 841.728 888.833 939.861 992.849 1045.763 1096.567 1143.311 1184.198 1217.656 1242.399 1257.478 
1257.478 1259.983 1250.38 1229.036 1196.773 1154.83 1104.819 1048.662 988.516 926.694 865.572 807.497 754.702 709.216 672.786 646.814 632.296 629.79 639.394 660.737 693.001 734.944 784.955 841.112 901.257 963.079 1024.202 1082.276 1135.071 1180.557 1216.987 1242.96 1257.478 
1257.478 1257.336 1243.434 1216.308 1176.999 1127.017 1068.285 1003.058 933.844 863.302 794.144 729.026 670.451 620.671 581.598 554.735 541.112 541.254 555.155 582.282 621.591 671.572 730.305 795.531 864.746 935.287 1004.446 1069.564 1128.138 1177.919 1216.991 1243.855 1257.478 
1257.478 1254.571 1236.541 1204.082 1158.44 1101.37 1035.066 962.074 885.201 807.399 731.66 660.894 597.82 544.861 504.055 476.967 464.641 467.548 485.578 518.037 563.678 620.748 687.053 760.044 836.918 914.719 990.458 1061.225 1124.299 1177.257 1218.064 1245.151 1257.478 
1257.478 1251.878 1230.295 1193.561 1143.085 1080.808 1009.124 930.787 848.807 766.334 686.54 612.488 547.027 492.67 451.507 425.121 414.524 420.124 441.706 478.441 528.917 591.193 662.878 741.215 823.195 905.667 985.462 1059.513 1124.975 1179.332 1220.494 1246.881 1257.478 
1257.478 1249.415 1225.155 1185.63 1132.359 1067.389 993.217 912.693 828.913 745.094 664.459 590.106 524.893 471.326 431.463 406.836 398.392 406.454 430.714 470.239 523.51 588.48 662.652 743.176 826.957 910.775 991.41 1065.763 1130.976 1184.544 1224.407 1249.034 1257.478 
